260
 Atoms. Timestep: 0
C 29.3046 1.38504 3.29491
C 26.9352 1.34407 3.01952
C 28.1713 1.95501 2.7055
C 28.1714 2.89371 1.66294
C 29.3048 3.42019 1.03457
C 29.3017 3.56418 -0.33653
C 24.4994 1.36291 3.07563
C 25.7155 1.9607 2.70788
C 25.7156 2.89687 1.66813
C 26.9354 3.14223 1.02241
C 26.9323 3.28869 -0.37192
C 28.1653 3.17925 -1.05558
C 28.1601 2.47776 -2.27049
C 29.2905 2.04317 -2.97043
C 29.2853 0.78382 -3.53139
C 22.068 1.37096 3.08376
C 23.2846 1.97898 2.72832
C 23.2847 2.91931 1.68397
C 24.4995 3.20022 1.03507
C 24.4964 3.34698 -0.36141
C 25.7095 3.1824 -1.04911
C 25.7043 2.4829 -2.26079
C 26.9223 1.94504 -2.69926
C 26.917 0.664262 -3.26955
C 28.1498 -0.019358 -3.38249
C 28.1464 -1.39161 -3.09088
C 29.2779 -2.1914 -2.89936
C 29.2778 -3.11388 -1.87481
C 19.6363 1.37781 3.08921
C 20.853 1.98519 2.73353
C 20.8531 2.92533 1.68939
C 22.0682 3.20934 1.04202
C 22.065 3.35631 -0.355458
C 23.2786 3.20663 -1.0491
C 23.2734 2.50405 -2.26616
C 24.4862 1.97416 -2.73939
C 24.4809 0.691386 -3.31049
C 25.694 -0.0130633 -3.37206
C 25.6906 -1.38157 -3.08116
C 26.9106 -1.96436 -2.71083
C 26.9105 -2.90247 -1.66893
C 28.1462 -3.22064 -1.05948
C 28.1495 -3.3672 0.33574
C 29.2849 -3.43142 1.15018
C 29.2901 -2.74192 2.34401
C 17.2045 1.38494 3.09548
C 18.4213 1.9922 2.73962
C 18.4214 2.9323 1.69552
C 19.6364 3.21567 1.04805
C 19.6333 3.36268 -0.349203
C 20.847 3.21266 -1.04233
C 20.8418 2.51019 -2.25914
C 22.0549 1.9827 -2.73483
C 22.0496 0.698988 -3.30633
C 23.263 -0.00650544 -3.38388
C 23.2597 -1.38109 -3.09166
C 24.4744 -1.99442 -2.73954
C 24.4743 -2.93399 -1.69603
C 25.6905 -3.20976 -1.05072
C 25.6937 -3.356 0.3407
C 26.9167 -3.18334 1.0037
C 26.9219 -2.48232 2.21787
C 28.1597 -2.00032 2.70297
C 28.165 -0.718756 3.27366
C 29.3014 0.0365034 3.58145
C 14.7728 1.39205 3.10168
C 15.9895 1.99932 2.74584
C 15.9896 2.93942 1.70174
C 17.2047 3.22281 1.05427
C 17.2015 3.36986 -0.342978
C 18.4152 3.21967 -1.03604
C 18.41 2.51724 -2.2528
C 19.6231 1.98946 -2.72787
C 19.6179 0.705942 -3.29924
C 20.8315 0.00084158 -3.37625
C 20.8281 -1.37346 -3.08406
C 22.0431 -1.98841 -2.73499
C 22.043 -2.92865 -1.69073
C 23.2595 -3.21997 -1.04935
C 23.2627 -3.36691 0.348249
C 24.4806 -3.22105 1.03475
C 24.4858 -2.51901 2.25081
C 25.7039 -1.98995 2.70685
C 25.7091 -0.711809 3.27589
C 26.932 -0.027308 3.31094
C 12.341 1.39917 3.10787
C 13.5578 2.00644 2.75205
C 13.5579 2.94653 1.70795
C 14.7729 3.22991 1.06048
C 14.7698 3.37696 -0.336761
C 15.9835 3.22684 -1.02985
C 15.9783 2.52444 -2.24663
C 17.1914 1.99665 -2.72169
C 17.1861 0.713128 -3.29307
C 18.3997 0.00803175 -3.36981
C 18.3964 -1.36619 -3.0776
C 19.6114 -1.98063 -2.72803
C 19.6113 -2.92072 -1.68394
C 20.828 -3.21143 -1.04277
C 20.8312 -3.35836 0.354549
C 22.0492 -3.21594 1.04167
C 22.0545 -2.5134 2.25861
C 23.273 -1.9929 2.72823
C 23.2782 -0.709078 3.29976
C 24.4961 -0.0105741 3.36757
C 9.90924 1.40637 3.11428
C 11.126 2.01358 2.75829
C 11.1261 2.95367 1.71419
C 12.3412 3.23701 1.06671
C 12.338 3.38402 -0.330529
C 13.5517 3.23391 -1.02361
C 13.5465 2.53154 -2.2404
C 14.7597 2.0038 -2.71551
C 14.7544 0.720277 -3.28689
C 15.968 0.0151844 -3.36366
C 15.9647 -1.35904 -3.07139
C 17.1797 -1.97347 -2.72178
C 17.1796 -2.91356 -1.67768
C 18.3963 -3.20404 -1.03643
C 18.3995 -3.351 0.360816
C 19.6175 -3.20797 1.04763
C 19.6227 -2.50558 2.26441
C 20.8414 -1.98509 2.7334
C 20.8466 -0.701526 3.30483
C 22.0647 -0.00349224 3.376
C 7.47765 1.41385 3.12171
C 8.69427 2.02122 2.76512
C 8.69436 2.96147 1.72086
C 9.90941 3.24434 1.07299
C 9.90628 3.39135 -0.32432
C 11.12 3.24101 -1.01737
C 11.1148 2.53866 -2.23417
C 12.3279 2.01092 -2.70927
C 12.3227 0.727399 -3.28065
C 13.5363 0.0223235 -3.35743
C 13.533 -1.35189 -3.06513
C 14.748 -1.96631 -2.71552
C 14.7479 -2.9064 -1.67142
C 15.9646 -3.19693 -1.03017
C 15.9677 -3.34394 0.367075
C 17.1858 -3.20088 1.05392
C 17.191 -2.49849 2.2707
C 18.4096 -1.97785 2.73954
C 18.4149 -0.694349 3.31095
C 19.633 0.00358277 3.38148
C 5.04664 1.41413 3.11105
C 6.26289 2.02705 2.76949
C 6.26297 2.96663 1.72599
C 7.47782 3.25272 1.07944
C 7.47471 3.39982 -0.318143
C 8.68826 3.24892 -1.01149
C 8.6831 2.54646 -2.22848
C 9.89619 2.01815 -2.70322
C 9.89096 0.734568 -3.27461
C 11.1046 0.0294506 -3.35119
C 11.1013 -1.34476 -3.05887
C 12.3163 -1.95916 -2.70926
C 12.3162 -2.89925 -1.66517
C 13.5329 -3.18978 -1.02393
C 13.536 -3.33682 0.373315
C 14.7541 -3.1938 1.06018
C 14.7593 -2.4914 2.27695
C 15.9779 -1.97077 2.74584
C 15.9831 -0.687247 3.31723
C 17.2012 0.0107136 3.38777
C 2.59084 1.42382 3.12052
C 3.82663 1.99672 2.74054
C 3.82671 2.93486 1.69864
C 5.04681 3.24235 1.08062
C 5.04374 3.3889 -0.310779
C 6.25691 3.25406 -1.00475
C 6.25177 2.5521 -2.22087
C 7.46464 2.02597 -2.69819
C 7.4594 0.742116 -3.26965
C 8.67288 0.0365163 -3.34579
C 8.66958 -1.33791 -3.05343
C 9.88453 -1.95215 -2.70318
C 9.88445 -2.89229 -1.65905
C 11.1011 -3.18263 -1.0177
C 11.1043 -3.3297 0.379541
C 12.3224 -3.18667 1.0664
C 12.3275 -2.48427 2.28316
C 13.5461 -1.96364 2.75204
C 13.5514 -0.680115 3.3234
C 14.7695 0.0178282 3.39398
C 1.45919 2.22328 2.92861
C 1.45927 3.14578 1.90409
C 2.59101 3.25297 1.08905
C 2.58794 3.40002 -0.306121
C 3.82082 3.21633 -0.973958
C 3.81569 2.51549 -2.18821
C 5.03374 2.02305 -2.67703
C 5.02853 0.744841 -3.24592
C 6.24155 0.043592 -3.33743
C 6.23825 -1.32983 -3.04524
C 7.45297 -1.94589 -2.69792
C 7.45289 -2.88622 -1.65358
C 8.66943 -3.17632 -1.01166
C 8.67259 -3.32341 0.385793
C 9.89062 -3.17974 1.07269
C 9.8958 -2.47731 2.28951
C 11.1144 -1.95653 2.75825
C 11.1196 -0.672982 3.32958
C 12.3377 0.0249546 3.40013
C 1.45266 3.46458 -1.12077
C 1.4476 2.77535 -2.31476
C 2.57796 2.03356 -2.6735
C 2.57272 0.751868 -3.24389
C 3.80568 0.0603505 -3.28093
C 3.80237 -1.31096 -2.98914
C 5.02211 -1.92754 -2.67741
C 5.02203 -2.86371 -1.63769
C 6.2381 -3.16715 -1.0047
C 6.24126 -3.31418 0.391744
C 7.45907 -3.17384 1.07946
C 7.46425 -2.47131 2.29655
C 8.68271 -1.94986 2.7652
C 8.68791 -0.666115 3.3366
C 9.90598 0.0320832 3.40654
C 1.43626 -0.00343341 -3.55144
C 1.43299 -1.35188 -3.26445
C 2.56628 -1.92183 -2.67502
C 2.56621 -2.86056 -1.63247
C 3.80222 -3.1092 -0.992005
C 3.80539 -3.25605 0.40229
C 5.02819 -3.14977 1.07948
C 5.03335 -2.45039 2.29122
C 6.25138 -1.94152 2.7698
C 6.25657 -0.658687 3.34078
C 7.47441 0.0393006 3.41409
C 1.43282 -3.38713 -1.00414
C 1.43596 -3.53158 0.36692
C 2.57238 -3.14684 1.08604
C 2.57756 -2.44558 2.30108
C 3.8153 -1.91268 2.72976
C 3.82048 -0.631813 3.29983
C 5.04344 0.0456747 3.40224
C 1.44717 -2.01117 3.00118
C 1.45227 -0.751674 3.56183
C 2.58764 0.0516665 3.41259
H 0.557094 0.47506 -3.9817
H 0.551129 -1.95995 -3.46335
H 0.566554 2.7808 -2.95564
H 0.551008 -3.64846 -1.58817
H 0.575694 4.02559 -0.799504
H 0.556725 -3.90941 0.88769
H 0.581 3.76063 1.7102
H 0.580846 2.09478 3.56028
H 0.566056 -2.64789 3.07349
H 0.575289 -0.373454 4.08609
H 30.1623 0.405535 -4.05554
H 30.156 -2.06318 -3.53136
H 30.1719 2.67959 -3.04233
H 30.1559 -3.72908 -1.68115
H 30.181 3.94184 -0.857335
H 30.1619 -3.99229 0.828821
H 30.1865 3.68182 1.61866
H 30.1714 -2.74699 2.98454
H 30.1863 1.99321 3.49413
H 30.1806 -0.442038 4.01158
